LAMMPS Description
		
7 atoms
0 bonds
0 angles
0 dihedrals
0 impropers

1 atom types
0 bond types
0 angle types
0 dihedral types
0 improper types

0.0 8.0 xlo xhi
0.0 8.0 ylo yhi
0.0 8.0 zlo zhi

Masses

1  28.08

Atoms

1  1  1.826   1.826   5.334 
2  1  1.754   5.334   5.406 
3  1  5.334   5.406   1.754 
4  1  7.103   7.103   7.103 
5  1  3.523   3.637   0.057 
6  1  3.637   0.057   3.523 
7  1  0.057   3.523   3.637
