LAMMPS data file via write_data, version 11 Nov 2013, timestep = 15000

10125 atoms
2 atom types
6750 bonds
1 bond types
3375 angles
1 angle types

-1.2998053548485800e-01 4.6629980535484322e+01 xlo xhi
-1.2998053548485800e-01 4.6629980535484322e+01 ylo yhi
-1.2998053548485800e-01 4.6629980535484322e+01 zlo zhi

Masses

1 1.00794
2 15.9994

PairIJ Coeffs

1 1 0 0 10
1 2 0 0 10
2 2 0.16275 3.16435 10

Bond Coeffs

1 0 0.9572

Angle Coeffs

1 0 104.52

Atoms

721 241 2 -1.0484400000000000e+00 -6.2221407531032169e-02 1.5159166496011423e+00 5.3069458514672112e+00 0 0 0
1396 466 2 -1.0484400000000000e+00 4.0240333910499935e+00 4.2356159167994916e+00 1.7598269969646658e+00 0 0 0
1398 466 1 5.2422000000000002e-01 4.7736723529825049e+00 3.6734646891601108e+00 1.9555433512796152e+00 0 0 0
718 240 2 -1.0484400000000000e+00 1.6591102071344288e+00 1.3108233273533909e-01 3.7368290353832792e+00 1 0 0
2115 705 1 5.2422000000000002e-01 2.6288644528128606e+00 1.8244264320027685e+00 3.9483095929557672e+00 1 0 0
143 48 1 5.2422000000000002e-01 3.6761888939589893e+00 1.1407160059661696e+00 4.5581094623734373e+01 0 0 -1
720 240 1 5.2422000000000002e-01 1.1245305078836783e+00 7.1971134884946397e-01 4.2697630465918346e+00 1 0 0
2114 705 1 5.2422000000000002e-01 4.0099046813594406e+00 2.4442216819799283e+00 3.9240295522274886e+00 1 0 0
722 241 1 5.2422000000000002e-01 4.6217552870353842e+01 6.8812606478977234e-01 5.2854836056460748e+00 -1 0 0
767 256 1 5.2422000000000002e-01 1.8148639625772536e+00 4.2191508709027135e+00 4.9530044829590549e+00 0 0 0
9451 3151 2 -1.0484400000000000e+00 1.6294658773583635e+00 3.3162757674184182e+00 9.6629142574017779e-01 0 0 1
9453 3151 1 5.2422000000000002e-01 9.9458425387598282e-01 3.3398104317258084e+00 1.6822860006901028e+00 0 0 1
9452 3151 1 5.2422000000000002e-01 2.3919130201031669e+00 3.7847538418770785e+00 1.3061141214488519e+00 0 0 1
766 256 2 -1.0484400000000000e+00 1.6350231467963205e+00 5.0871828648202335e+00 5.3141900247963729e+00 0 0 0
719 240 1 5.2422000000000002e-01 2.1264423817198170e+00 4.6349379269611475e+01 4.3728152838831624e+00 1 -1 0
53 18 1 5.2422000000000002e-01 1.3897369657438163e+00 1.5704802408693326e+00 -4.7975210031770771e-02 0 0 0
768 256 1 5.2422000000000002e-01 1.0452090776570766e+00 5.4938027977937747e+00 4.6793215565809598e+00 0 0 0
2113 705 2 -1.0484400000000000e+00 3.1275779486759792e+00 2.5748463791120426e+00 4.2714691290606410e+00 1 0 0
52 18 2 -1.0484400000000000e+00 1.6553480837145822e+00 8.0439619162876075e-01 4.6203219950883579e+01 0 0 -1
1400 467 1 5.2422000000000002e-01 5.4519489664360554e+00 4.5911578622760260e+01 1.7927089151704119e+00 0 -1 0
142 48 2 -1.0484400000000000e+00 4.2953261807615215e+00 1.8270579112028489e+00 4.5829853368467781e+01 0 0 -1
144 48 1 5.2422000000000002e-01 3.7525460007143558e+00 2.5062782447384309e+00 4.6230261049510830e+01 0 0 -1
1397 466 1 5.2422000000000002e-01 4.2761502162839529e+00 5.0966464642440643e+00 2.0935061341963861e+00 0 0 0
97 33 2 -1.0484400000000000e+00 5.8626896914901483e+00 2.6119285896220621e+00 3.1124661250643442e+00 0 0 0
1311 437 1 5.2422000000000002e-01 5.9999029474213543e+00 1.6496596967619122e+00 2.8380405535273212e-03 0 1 0
2747 916 1 5.2422000000000002e-01 5.7280062016096602e+00 3.4493293810996661e+00 6.0838547257199878e+00 0 0 0
9538 3180 2 -1.0484400000000000e+00 4.6393164818722070e+01 3.2272261768181494e+00 2.9806645026669387e+00 0 0 1
9539 3180 1 5.2422000000000002e-01 4.6436296959492267e+01 2.7218354040678490e+00 3.7924511404445305e+00 0 0 1
1401 467 1 5.2422000000000002e-01 6.5244334602003082e+00 1.5489846562231607e-01 1.4249960150520389e+00 0 0 0
2748 916 1 5.2422000000000002e-01 4.2365232754444921e+00 3.2269716370134649e+00 5.9495282296128922e+00 0 0 0
98 33 1 5.2422000000000002e-01 5.9910722511691175e+00 1.7583232748959581e+00 2.6987594738492655e+00 0 0 0
99 33 1 5.2422000000000002e-01 6.5029467015239089e+00 2.6326203867980942e+00 3.8237471442539626e+00 0 0 0
1402 468 2 -1.0484400000000000e+00 1.0315180512060381e+01 3.3954107958074724e+00 4.8259005287438521e+00 0 0 0
1403 468 1 5.2422000000000002e-01 9.7910940478539423e+00 4.1711289367685485e+00 4.6262218853277588e+00 0 0 0
1404 468 1 5.2422000000000002e-01 1.1038989625700710e+01 3.7253425725391835e+00 5.3583685466447637e+00 0 0 0
772 258 2 -1.0484400000000000e+00 9.1478662692942567e+00 1.5345626592183437e+00 3.1631565204138052e+00 0 0 0
774 258 1 5.2422000000000002e-01 9.2848513584420811e+00 1.6564497837442576e+00 2.2236588599167817e+00 0 0 0
773 258 1 5.2422000000000002e-01 9.7277463871794865e+00 2.1749870658404959e+00 3.5753138098818971e+00 0 0 0
1364 455 1 5.2422000000000002e-01 1.1128773778658056e+01 7.0638452737965018e-01 3.9853524174235364e+00 0 0 0
1416 472 1 5.2422000000000002e-01 1.2065335702683358e+01 2.8379916080806926e+00 1.1672617642411651e+00 0 0 0
1309 437 2 -1.0484400000000000e+00 6.9478966870197727e+00 1.5564574532485993e+00 9.7167254204186121e-02 0 1 0
1365 455 1 5.2422000000000002e-01 1.2421409526923279e+01 5.6795880773772855e-01 4.7611995051037699e+00 0 0 0
1447 483 2 -1.0484400000000000e+00 9.3210592987704537e+00 5.8931212284991608e+00 4.4032661271043105e+00 0 0 0
1448 483 1 5.2422000000000002e-01 8.4029085928031257e+00 6.0381996973645853e+00 4.6318012409087759e+00 0 0 0
2026 676 2 -1.0484400000000000e+00 7.4912823289104251e+00 2.7468640505581110e+00 5.4137455809476904e+00 0 0 0
2027 676 1 5.2422000000000002e-01 7.5485115927494668e+00 2.4070171015105970e+00 6.3067777082410856e+00 0 0 0
692 231 1 5.2422000000000002e-01 1.3759627669805292e+01 4.6152249461021569e+01 3.6996798783665907e-02 0 -1 0
779 260 1 5.2422000000000002e-01 1.0340598340912587e+01 5.7965097965581025e+00 2.9779446953669533e+00 0 0 0
728 243 1 5.2422000000000002e-01 9.3691266484703348e+00 3.0748762532320324e+00 3.1119020685221266e-01 0 0 0
778 260 2 -1.0484400000000000e+00 1.0965880655984517e+01 5.6267832468491097e+00 2.2733225408160780e+00 0 0 0
727 243 2 -1.0484400000000000e+00 1.0248462662782465e+01 2.6971456971264667e+00 2.9209331179278064e-01 0 0 0
1363 455 2 -1.0484400000000000e+00 1.1908535060434991e+01 1.5696433284262262e-01 4.0652683881589757e+00 0 0 0
1414 472 2 -1.0484400000000000e+00 1.3006850637279923e+01 3.0070011470348099e+00 1.1317194821769778e+00 0 0 0
1415 472 1 5.2422000000000002e-01 1.3176605636659341e+01 3.5781360741877415e+00 1.8808967963234871e+00 0 0 0
2039 680 1 5.2422000000000002e-01 1.2881069267057205e+01 9.1630476238381747e-02 2.4022617406752680e+00 0 0 0
2038 680 2 -1.0484400000000000e+00 1.3471796175353232e+01 1.2647783066688989e-01 1.6498627875443312e+00 0 0 0
1449 483 1 5.2422000000000002e-01 9.7326382319808129e+00 6.7511040138216378e+00 4.5069249326527956e+00 0 0 0
2028 676 1 5.2422000000000002e-01 8.4011047308185756e+00 2.8882641907914071e+00 5.1520076484494588e+00 0 0 0
1310 437 1 5.2422000000000002e-01 7.1258562298730146e+00 6.4953091550054143e-01 4.6607946516044137e+01 0 1 -1
738 246 1 5.2422000000000002e-01 1.3149282678645157e+01 4.4808866641217300e+00 4.6486960219136506e+01 0 0 -1
729 243 1 5.2422000000000002e-01 1.0346148135412765e+01 2.3614249278917216e+00 4.6160972522407306e+01 0 0 -1
155 52 1 5.2422000000000002e-01 1.5464472418742915e+01 5.0912528403227659e+00 2.4143132285096942e+00 0 0 0
783 261 1 5.2422000000000002e-01 1.8822176725394346e+01 2.0674608880200220e+00 5.1740283684077522e+00 0 0 0
781 261 2 -1.0484400000000000e+00 1.8612155667928477e+01 1.9387820772366302e+00 4.2490365844837292e+00 0 0 0
782 261 1 5.2422000000000002e-01 1.7924521024823985e+01 1.2728723644281983e+00 4.2494466790637953e+00 0 0 0
1405 469 2 -1.0484400000000000e+00 1.3634936935567765e+01 4.7685370112023300e+00 3.0601626146579215e+00 0 0 0
1406 469 1 5.2422000000000002e-01 1.3940823092022448e+01 4.9348648678388747e+00 3.9518159194838907e+00 0 0 0
1407 469 1 5.2422000000000002e-01 1.2764042757329833e+01 5.1644541328933791e+00 3.0274321926360548e+00 0 0 0
9515 3172 1 5.2422000000000002e-01 1.8259882689950150e+01 3.3279720333752736e+00 2.8560677306683453e+00 0 0 1
9516 3172 1 5.2422000000000002e-01 1.9046239320411733e+01 4.6090216106710598e+00 2.6756135771020975e+00 0 0 1
9514 3172 2 -1.0484400000000000e+00 1.8295156884538734e+01 4.1267697025236423e+00 2.3298021387261989e+00 0 0 1
705 235 1 5.2422000000000002e-01 2.0435027769668096e+01 1.4840386546107451e+00 3.5169693412203902e+00 0 0 0
2040 680 1 5.2422000000000002e-01 1.3756538780890509e+01 1.0395165816069922e+00 1.6103825737601642e+00 0 0 0
156 52 1 5.2422000000000002e-01 1.6942211040012637e+01 5.3818406834278640e+00 2.2598630723233990e+00 0 0 0
154 52 2 -1.0484400000000000e+00 1.6103665340501351e+01 5.8029428641257201e+00 2.4490477857970818e+00 0 0 0
1495 499 2 -1.0484400000000000e+00 1.2428386376049030e+01 6.7611970749107488e+00 5.8139601807643349e+00 0 0 0
9469 3157 2 -1.0484400000000000e+00 1.6601545409363244e+01 4.2638590650597052e-02 3.5893279678554291e+00 0 0 1
9470 3157 1 5.2422000000000002e-01 1.7364293501719182e+01 4.6563224895575729e+01 3.0628367494218609e+00 0 -1 1
2131 711 2 -1.0484400000000000e+00 2.1596331403581949e+01 4.4379181484331145e+00 6.2848094690194385e+00 0 0 0
2132 711 1 5.2422000000000002e-01 2.1704367675385573e+01 5.1986474319797011e+00 5.7139365272687881e+00 0 0 0
1371 457 1 5.2422000000000002e-01 2.2667968067948710e+01 3.2658395946530034e+00 5.4316736156724925e+00 0 0 0
1369 457 2 -1.0484400000000000e+00 2.3092732042596680e+01 2.5941644263327532e+00 4.8980960968684384e+00 0 0 0
9562 3188 2 -1.0484400000000000e+00 2.6065130872631340e+01 6.6811250996370708e+00 6.5425740788728488e+00 0 0 1
9564 3188 1 5.2422000000000002e-01 2.6146367981175445e+01 7.3997674426558220e+00 7.1696552932837614e+00 0 0 1
2133 711 1 5.2422000000000002e-01 2.0649402858063262e+01 4.3551701351224725e+00 6.3977515064120185e+00 0 0 0
9521 3174 1 5.2422000000000002e-01 2.5280086265731789e+01 3.6789041576246673e+00 2.4554042045181745e-02 0 0 1
9520 3174 2 -1.0484400000000000e+00 2.5639184987532914e+01 4.5661451105570654e+00 3.5919318820680723e-02 0 0 1
1374 458 1 5.2422000000000002e-01 2.3365363948367687e+01 1.5308729073501666e+00 6.4018259032716669e+00 0 0 0
115 39 2 -1.0484400000000000e+00 2.5586199118607439e+01 3.3599251741570928e+00 4.2171203645182365e+00 0 0 0
117 39 1 5.2422000000000002e-01 2.5221331124069824e+01 4.2265252367680857e+00 4.3964337206688455e+00 0 0 0
116 39 1 5.2422000000000002e-01 2.4967773084296407e+01 2.7509310374875349e+00 4.6207948620563100e+00 0 0 0
120 40 1 5.2422000000000002e-01 2.7069348284676234e+01 2.3288839656904141e+00 5.7326516910766969e+00 0 0 0
1370 457 1 5.2422000000000002e-01 2.2373640843793286e+01 2.1677621572205674e+00 4.4318710979470799e+00 0 0 0
1332 444 1 5.2422000000000002e-01 2.2457252703548424e+01 2.6394879240111604e+00 2.1281343090853833e+00 0 1 0
703 235 2 -1.0484400000000000e+00 2.1333232992677033e+01 1.4418960111355610e+00 3.1887480388695071e+00 0 0 0
1331 444 1 5.2422000000000002e-01 2.3417073478269042e+01 3.3958707309700373e+00 3.0217991075451671e+00 0 1 0
1330 444 2 -1.0484400000000000e+00 2.3165834802187181e+01 3.2826501655655678e+00 2.1051001339362752e+00 0 1 0
661 221 2 -1.0484400000000000e+00 2.4934002028157217e+01 1.9183956763959693e+00 1.9651894478543902e-01 0 1 0
663 221 1 5.2422000000000002e-01 2.4304236017599813e+01 2.4371264049579162e+00 6.9710857995461095e-01 0 1 0
662 221 1 5.2422000000000002e-01 2.5463719550802370e+01 1.4775449834022036e+00 8.6084331473703557e-01 0 1 0
9522 3174 1 5.2422000000000002e-01 2.6122679665696527e+01 4.6188185021760244e+00 8.6038015869637718e-01 0 0 1
9607 3203 2 -1.0484400000000000e+00 2.2080558245360788e+01 6.4591096019374152e+00 4.4347481413478205e+00 0 0 1
9609 3203 1 5.2422000000000002e-01 2.3010631475885983e+01 6.3513428219994150e+00 4.2356830198997457e+00 0 0 1
209 70 1 5.2422000000000002e-01 2.4843006889808738e+01 6.5333924692279997e+00 5.0491309038635324e+00 0 0 0
658 220 2 -1.0484400000000000e+00 2.6671217172917789e+01 4.6172700767993613e-01 1.8603977686211473e+00 0 1 0
164 55 1 5.2422000000000002e-01 2.6774195704269836e+01 3.6456262390067895e+00 2.7345930618260472e+00 0 0 0
660 220 1 5.2422000000000002e-01 2.7269390270079526e+01 9.3160624739674058e-01 2.4414995083602080e+00 0 1 0
208 70 2 -1.0484400000000000e+00 2.4619831675851408e+01 6.1999379281625204e+00 4.1800631181528383e+00 0 0 0
704 235 1 5.2422000000000002e-01 2.1607705986685968e+01 5.4019794525362963e-01 3.3557282019090566e+00 0 0 0
109 37 2 -1.0484400000000000e+00 2.1884498951147599e+01 5.3569523546741298e+00 4.3087895794762254e-01 0 0 0
113 38 1 5.2422000000000002e-01 2.1321621167758426e+01 7.0569686891542371e+00 9.1468623309034647e-01 0 0 0
9563 3188 1 5.2422000000000002e-01 2.6773556092311544e+01 6.8282393691237102e+00 5.9158615746081100e+00 0 0 1
659 220 1 5.2422000000000002e-01 2.7122750825086396e+01 4.4152410609228809e-01 1.0166051285542201e+00 0 1 0
795 265 1 5.2422000000000002e-01 2.9097756003686442e+01 2.8172972103872653e+00 6.0842665679924055e+00 0 0 0
28 10 2 -1.0484400000000000e+00 3.1553603257532444e+01 8.2892182913745560e-01 2.5234672555990221e+00 0 0 0
30 10 1 5.2422000000000002e-01 3.0596851504006271e+01 8.5315742478747136e-01 2.5412439953924366e+00 0 0 0
749 250 1 5.2422000000000002e-01 3.1586557594998546e+01 1.7525705595576646e+00 5.4592708302442983e+00 0 0 0
76 26 2 -1.0484400000000000e+00 2.9869831035744248e+01 4.5647091257976342e+00 3.5637830555339818e+00 0 0 0
77 26 1 5.2422000000000002e-01 3.0612179509733902e+01 5.0349425026004448e+00 3.9433568277363040e+00 0 0 0
78 26 1 5.2422000000000002e-01 3.0194689180042317e+01 4.2417908143211562e+00 2.7232666781274437e+00 0 0 0
793 265 2 -1.0484400000000000e+00 2.9977373151686628e+01 2.8921624417323550e+00 5.7142048685956350e+00 0 0 0
29 10 1 5.2422000000000002e-01 3.1764489078207717e+01 1.2587681562929381e-01 1.9090305802796728e+00 0 0 0
748 250 2 -1.0484400000000000e+00 3.2153336989539937e+01 1.0268022340170377e+00 5.1979314934497705e+00 0 0 0
750 250 1 5.2422000000000002e-01 3.2019549250119752e+01 9.4584578906579675e-01 4.2535673170148165e+00 0 0 0
794 265 1 5.2422000000000002e-01 2.9881546617103826e+01 3.5119332462337569e+00 4.9910325289355866e+00 0 0 0
163 55 2 -1.0484400000000000e+00 2.7504220867750423e+01 3.6408200767759582e+00 2.1154662605550474e+00 0 0 0
165 55 1 5.2422000000000002e-01 2.8278814565875482e+01 3.7940921232424718e+00 2.6565665158928904e+00 0 0 0
753 251 1 5.2422000000000002e-01 3.3491825911412604e+01 2.2893941296811855e+00 4.9792057082951509e+00 0 0 0
751 251 2 -1.0484400000000000e+00 3.4179304859647203e+01 2.8194638516568027e+00 5.3825363440167058e+00 0 0 0
1472 491 1 5.2422000000000002e-01 3.2881251715747553e+01 4.4037447692040734e+00 5.1018799128638879e+00 0 0 0
1471 491 2 -1.0484400000000000e+00 3.2149781966333592e+01 5.0196025484138804e+00 5.0577382582953456e+00 0 0 0
204 68 1 5.2422000000000002e-01 2.8439788101899016e+01 5.7509659286300812e+00 4.0818043289948243e+00 0 0 0
1473 491 1 5.2422000000000002e-01 3.2121446332941517e+01 5.4212123210784720e+00 5.9261761473175296e+00 0 0 0
2008 670 2 -1.0484400000000000e+00 2.8883309667628076e+01 1.2307445669732553e+00 3.5200690125965317e+00 0 1 0
2010 670 1 5.2422000000000002e-01 2.9409172491624894e+01 1.5962094430788132e+00 4.2315328614430108e+00 0 1 0
9525 3175 1 5.2422000000000002e-01 3.1273496673980699e+01 3.4527114625170943e+00 8.5323301495958281e-01 0 0 1
9523 3175 2 -1.0484400000000000e+00 3.0544677504044184e+01 4.0437296781239827e+00 1.0424337076402443e+00 0 0 1
2009 670 1 5.2422000000000002e-01 2.8774030747106423e+01 3.0842566750995587e-01 3.7517242832566975e+00 0 1 0
2016 672 1 5.2422000000000002e-01 3.2121033977062964e+01 4.5846351208695921e+01 5.3802673812781201e+00 0 0 0
9612 3204 1 5.2422000000000002e-01 2.7883360910555599e+01 3.2619775970973062e+00 2.3203530195549171e-01 0 0 1
9524 3175 1 5.2422000000000002e-01 2.9784323898453845e+01 3.6234369747241972e+00 6.4057149633522537e-01 0 0 1
75 25 1 5.2422000000000002e-01 3.1587672606265699e+01 5.8215279675426093e+00 7.1985164754631803e-01 0 0 0
756 252 1 5.2422000000000002e-01 3.4546290266923421e+01 5.7086779608337936e+00 2.5078958012418977e+00 0 0 0
802 268 2 -1.0484400000000000e+00 3.7976554988995176e+01 2.7790994869284842e+00 7.1198692004021424e+00 0 0 0
803 268 1 5.2422000000000002e-01 3.8142779341766257e+01 3.6220496634762194e+00 6.6978717438090571e+00 0 0 0
1426 476 2 -1.0484400000000000e+00 3.5872982228750502e+01 1.1601551396533405e+00 6.7029684916675114e+00 0 0 0
804 268 1 5.2422000000000002e-01 3.7169941857373274e+01 2.4621555976699723e+00 6.7134218979384910e+00 0 0 0
1475 492 1 5.2422000000000002e-01 3.4100601672873964e+01 3.0662515124861627e+00 2.4958042763087307e+00 0 0 0
752 251 1 5.2422000000000002e-01 3.4816039687884569e+01 2.1816322214418151e+00 5.7050520090083205e+00 0 0 0
754 252 2 -1.0484400000000000e+00 3.3747717404649777e+01 5.2138694159571974e+00 2.6915361843217727e+00 0 0 0
1474 492 2 -1.0484400000000000e+00 3.4363231554985703e+01 2.3332015329028728e+00 1.9390811323950343e+00 0 0 0
123 41 1 5.2422000000000002e-01 3.5082330026272231e+01 5.7477639349264775e-01 2.4631676507189320e+00 0 0 0
121 41 2 -1.0484400000000000e+00 3.5168902792056201e+01 4.6387535335196830e+01 2.5708285364050267e+00 0 -1 0
126 42 1 5.2422000000000002e-01 3.7157856289196431e+01 4.1976044413036799e+00 2.3425636449405296e+00 0 0 0
124 42 2 -1.0484400000000000e+00 3.7455586931725634e+01 4.6726201411134207e+00 3.1184466641613002e+00 0 0 0
122 41 1 5.2422000000000002e-01 3.4319595556163577e+01 4.6036880667342217e+01 2.3025080093191890e+00 0 -1 0
125 42 1 5.2422000000000002e-01 3.6962719036017205e+01 5.4930272180683186e+00 3.1013853373961875e+00 0 0 0
755 252 1 5.2422000000000002e-01 3.3249904604643234e+01 5.7740427532407912e+00 3.2870749110055728e+00 0 0 0
1427 476 1 5.2422000000000002e-01 3.5777359529307304e+01 1.1204824374150515e+00 7.6545772013026090e+00 0 0 0
1428 476 1 5.2422000000000002e-01 3.5528968938209218e+01 3.2273097340337159e-01 6.3920787716902820e+00 0 0 0
1476 492 1 5.2422000000000002e-01 3.3646042774809814e+01 2.2390007238290264e+00 1.3121487303062398e+00 0 0 0
708 236 1 5.2422000000000002e-01 3.8673301015577138e+01 4.5561154109083493e+00 4.5712136519668380e+00 0 0 0
706 236 2 -1.0484400000000000e+00 3.9143222145384115e+01 4.7502278736400143e+00 5.3822458547612406e+00 0 0 0
86 29 1 5.2422000000000002e-01 3.8182610222744586e+01 4.5894753273522682e+01 5.9934216006223986e+00 0 -1 0
85 29 2 -1.0484400000000000e+00 3.7723682981767610e+01 4.5093559242526638e+01 5.7409311237508183e+00 0 -1 0
87 29 1 5.2422000000000002e-01 3.7714676311508072e+01 4.5113570663677137e+01 4.7839588971570448e+00 0 -1 0
707 236 1 5.2422000000000002e-01 4.0068189844003115e+01 4.6755629141943897e+00 5.1474322643362820e+00 0 0 0
710 237 1 5.2422000000000002e-01 3.8950121590298252e+01 1.3433161051315252e+00 6.3956200198143192e+00 0 0 0
709 237 2 -1.0484400000000000e+00 3.9471310763629660e+01 6.3034559003332191e-01 6.0264146333727107e+00 0 0 0
2150 717 1 5.2422000000000002e-01 3.8797225772783037e+01 6.1576276319607741e+00 6.2137703941676401e+00 0 0 0
9489 3163 1 5.2422000000000002e-01 3.6113172475130597e+01 2.6065264376328181e+00 1.3461568120396616e+00 0 0 1
9487 3163 2 -1.0484400000000000e+00 3.6994145569696329e+01 2.8501649029931886e+00 1.0618945415743373e+00 0 0 1
9488 3163 1 5.2422000000000002e-01 3.7488684095165482e+01 2.0308902912707691e+00 1.0842035950253421e+00 0 0 1
9400 3134 2 -1.0484400000000000e+00 3.9597350309332512e+01 6.4825502280415292e-01 7.5556358047557570e-01 0 1 1
9401 3134 1 5.2422000000000002e-01 3.9797064924959315e+01 4.6484220008054123e+01 9.0597334501238613e-01 0 0 1
723 241 1 5.2422000000000002e-01 1.2290993978172499e-01 1.6619900611801643e+00 6.2346668248110442e+00 0 0 0
2158 720 2 -1.0484400000000000e+00 4.6108355408300355e+01 4.6534902023397905e+01 7.6693636454014902e+00 0 -1 0
2160 720 1 5.2422000000000002e-01 4.5220095512489380e+01 -2.9018462473129100e-02 7.3713045060337157e+00 0 0 0
90 30 1 5.2422000000000002e-01 4.6419655338765480e+01 6.5484479214097551e+00 3.1784537761631304e+00 0 0 0
88 30 2 -1.0484400000000000e+00 4.6281610565065847e+01 5.8859767713672300e+00 3.8554724357670178e+00 0 0 0
9454 3152 2 -1.0484400000000000e+00 4.4254831820265082e+01 1.5241124300222180e+00 2.1437810762690375e+00 -1 0 1
9455 3152 1 5.2422000000000002e-01 4.4332214308373580e+01 8.3817562063060314e-01 2.8069408565068841e+00 -1 0 1
3 1 1 5.2422000000000002e-01 4.3376512654058331e+01 1.5209234476445244e+00 7.0853475217035253e+00 -1 0 0
671 224 1 5.2422000000000002e-01 4.1920130373033331e+01 3.7275526752161725e+00 8.0647638544587696e+00 0 1 0
45 15 1 5.2422000000000002e-01 3.9786522307109209e+01 9.2409326644419254e-01 2.5784274659835162e+00 0 0 0
670 224 2 -1.0484400000000000e+00 4.2360809915773984e+01 2.8812521249849201e+00 7.9882543911711679e+00 0 1 0
132 44 1 5.2422000000000002e-01 4.2008791742336967e+01 5.7917218230880545e+00 3.9087887636382170e+00 0 0 0
130 44 2 -1.0484400000000000e+00 4.1929656610878624e+01 5.0449222578187749e+00 4.5023415329572183e+00 0 0 0
89 30 1 5.2422000000000002e-01 4.5770632028294742e+01 6.3343667878933152e+00 4.5293599521892611e+00 0 0 0
131 44 1 5.2422000000000002e-01 4.1947453967498006e+01 4.2791525730652333e+00 3.9282710529169185e+00 0 0 0
9456 3152 1 5.2422000000000002e-01 4.4884237748097689e+01 2.1923303422315863e+00 2.4150943788089352e+00 -1 0 1
9536 3179 1 5.2422000000000002e-01 3.9631703442770501e+01 4.7709330644898094e+00 1.8449865812382307e+00 0 0 1
9540 3180 1 5.2422000000000002e-01 4.6097793225895828e+01 4.0957222456180853e+00 3.2540655790752564e+00 0 0 1
44 15 1 5.2422000000000002e-01 3.9649055077173401e+01 1.4063119858319379e+00 4.0069154047987334e+00 0 0 0
43 15 2 -1.0484400000000000e+00 4.0295313205952198e+01 1.1029564973280168e+00 3.3692611294269437e+00 0 0 0
9537 3179 1 5.2422000000000002e-01 4.0980110601225761e+01 4.2411016591323172e+00 2.2844026123484564e+00 0 0 1
9535 3179 2 -1.0484400000000000e+00 4.0532009819905852e+01 5.0447111639762028e+00 2.0204031737556987e+00 0 0 1
8819 2940 1 5.2422000000000002e-01 4.4305884717499069e+01 6.4104316688993246e-01 2.0552166717239057e-01 0 0 1
10121 3374 1 5.2422000000000002e-01 4.2844908345841333e+01 2.5488162146261248e+00 2.6382471168541555e+00 0 1 1
10120 3374 2 -1.0484400000000000e+00 4.2028140446621293e+01 3.0114243083085368e+00 2.8257590722391477e+00 0 1 1
10122 3374 1 5.2422000000000002e-01 4.1376159619441808e+01 2.3173820488873944e+00 2.9232436831577555e+00 0 1 1
1 1 2 -1.0484400000000000e+00 4.3593492758300229e+01 6.1025419822325389e-01 6.8856527375099583e+00 -1 0 0
134 45 1 5.2422000000000002e-01 4.3775209908669893e+01 6.8699739423736039e+00 6.5227597049853658e-01 0 0 0
2 1 1 5.2422000000000002e-01 4.2774347888262213e+01 1.3345082978056988e-01 7.0195820400496167e+00 -1 0 0
711 237 1 5.2422000000000002e-01 3.9927875929843708e+01 2.5259965057085798e-01 6.7781683031227624e+00 0 0 0
137 46 1 5.2422000000000002e-01 1.9681935285024527e-01 7.6434250282425094e+00 1.0474844573423994e+00 0 0 0
136 46 2 -1.0484400000000000e+00 4.6568267200641401e+01 7.8246917869880557e+00 1.9033329430573684e+00 -1 0 0
138 46 1 5.2422000000000002e-01 4.5626728622920353e+01 7.8655984146406928e+00 1.7356768772956901e+00 -1 0 0
9582 3194 1 5.2422000000000002e-01 4.3433141713444115e+01 5.4309802084057353e+00 5.6425598809606763e+00 0 0 1
92 31 1 5.2422000000000002e-01 4.0516891237104016e+00 7.0395019609406644e+00 3.0845546970461428e+00 0 0 0
726 242 1 5.2422000000000002e-01 3.1948844935368981e+00 1.0258379486264742e+01 5.2358943171817813e+00 0 0 0
724 242 2 -1.0484400000000000e+00 2.5136937325694073e+00 1.0477302746139847e+01 4.6000251868378115e+00 0 0 0
769 257 2 -1.0484400000000000e+00 3.7028651767260143e+00 1.2175969215276327e+01 2.2952992092523612e+00 0 0 0
771 257 1 5.2422000000000002e-01 3.1962028744162505e+00 1.1737401181187911e+01 2.9788401139628728e+00 0 0 0
9590 3197 1 5.2422000000000002e-01 1.8789881618176381e+00 1.1049282920657793e+01 1.9070129145159209e-03 0 0 1
725 242 1 5.2422000000000002e-01 1.7272404142481572e+00 1.0044372324652286e+01 4.9321994978494708e+00 0 0 0
9586 3196 2 -1.0484400000000000e+00 2.5273898086506383e+00 7.9802471111827291e+00 3.2317050566798686e+00 0 0 1
9587 3196 1 5.2422000000000002e-01 2.7724730607237449e+00 8.8927451024184681e+00 3.3851940961182523e+00 0 0 1
1353 451 1 5.2422000000000002e-01 6.7923731128927187e+00 7.4303250804746090e+00 4.7945448235970440e+00 0 0 0
1351 451 2 -1.0484400000000000e+00 6.5940911666386759e+00 6.6278644195563610e+00 5.2772642290409042e+00 0 0 0
9585 3195 1 5.2422000000000002e-01 4.2257106399603535e+00 6.9590286326240873e+00 4.6083811614612813e+01 1 0 0
1487 496 1 5.2422000000000002e-01 4.4279888545611783e+00 1.3432515914606105e+01 3.6852808697082655e+00 0 0 0
9588 3196 1 5.2422000000000002e-01 1.6429018418808474e+00 8.0271092421486419e+00 2.8687144950567700e+00 0 0 1
1539 513 1 5.2422000000000002e-01 6.1807185377584517e+00 1.3005817664776533e+01 7.0367377630113612e+00 0 0 0
1352 451 1 5.2422000000000002e-01 6.6992773308749047e+00 6.8692059830251377e+00 6.1975723068965438e+00 0 0 0
1579 527 2 -1.0484400000000000e+00 4.6350106206092443e+00 9.8963392821698939e+00 6.5554085930313892e+00 0 0 0
770 257 1 5.2422000000000002e-01 3.9773775596637337e+00 1.1470165879237895e+01 1.7098409135916255e+00 0 0 0
1537 513 2 -1.0484400000000000e+00 6.3233906444095647e+00 1.3161906617703501e+01 6.1031652301423884e+00 0 0 0
93 31 1 5.2422000000000002e-01 5.2427761037070590e+00 6.2481916387367917e+00 3.5816956061080045e+00 0 0 0
91 31 2 -1.0484400000000000e+00 4.8156361967026786e+00 6.5497612783398429e+00 2.7798947755018681e+00 0 0 0
9589 3197 2 -1.0484400000000000e+00 9.8165864026820304e-01 1.0877313794994420e+01 2.8739485188315766e-01 0 0 1
9591 3197 1 5.2422000000000002e-01 6.1790370222187041e-01 1.1743577421298887e+01 4.7055292538087012e-01 0 0 1
813 271 1 5.2422000000000002e-01 6.0726078579303444e-01 1.1343517960156886e+01 3.7243485197230415e+00 0 0 0
811 271 2 -1.0484400000000000e+00 6.4414181594425812e-01 1.2069619703047199e+01 3.1016986876234731e+00 0 0 0
1580 527 1 5.2422000000000002e-01 4.6904528527726708e+00 1.0170639641422543e+01 7.4708114570438138e+00 0 0 0
9636 3212 1 5.2422000000000002e-01 4.0107364497453224e+00 1.0799896172880450e+01 4.6565767247907090e+01 0 0 0
1618 540 2 -1.0484400000000000e+00 4.6613787897716378e+01 9.8453988047990180e+00 5.1978279399798870e+00 0 0 0
810 270 1 5.2422000000000002e-01 2.4132958445420321e+00 6.3268226593379095e+00 6.1347046689946216e+00 1 0 0
808 270 2 -1.0484400000000000e+00 2.6686090665343190e+00 7.1196871720937898e+00 6.6063591378627811e+00 1 0 0
186 62 1 5.2422000000000002e-01 6.6860396349853550e+00 1.0063290175876892e+01 2.0631693275328353e+00 0 0 0
1581 527 1 5.2422000000000002e-01 5.5223483502231030e+00 9.6122731341691185e+00 6.3358293392187486e+00 0 0 0
1620 540 1 5.2422000000000002e-01 1.4877902387760855e-01 1.0274265667028450e+01 6.0011668717962392e+00 1 0 0
780 260 1 5.2422000000000002e-01 1.1023082249138193e+01 6.4558802508660253e+00 1.7983449093672208e+00 0 0 0
1540 514 2 -1.0484400000000000e+00 7.3493509233444678e+00 9.3803844054993490e+00 4.0165044152644755e+00 0 0 0
1538 513 1 5.2422000000000002e-01 7.0870745847044425e+00 1.2627817675133294e+01 5.8845041460636205e+00 0 0 0
1542 514 1 5.2422000000000002e-01 7.6606315409591703e+00 1.0221983088872607e+01 4.3498118702449444e+00 0 0 0
1541 514 1 5.2422000000000002e-01 8.0360363907560100e+00 9.0914819216887324e+00 3.4154424161199652e+00 0 0 0
817 273 2 -1.0484400000000000e+00 1.2305687937406395e+01 1.1059930831914782e+01 3.3480993499536233e+00 0 0 0
819 273 1 5.2422000000000002e-01 1.1432263332217913e+01 1.0778639397420761e+01 3.0755524902984557e+00 0 0 0
1500 500 1 5.2422000000000002e-01 9.8776296768956051e+00 1.0379749430677711e+01 2.0859249842213718e+00 0 0 0
869 290 1 5.2422000000000002e-01 1.0236242609273958e+01 8.8784676664825763e+00 5.6350768985842947e+00 0 0 0
868 290 2 -1.0484400000000000e+00 1.0362675749980562e+01 8.2924295579348719e+00 4.8888525422107882e+00 0 0 0
870 290 1 5.2422000000000002e-01 1.0565217603595697e+01 8.8756182286556182e+00 4.1573167977499219e+00 0 0 0
1498 500 2 -1.0484400000000000e+00 1.0138501106664339e+01 9.6373201663082160e+00 2.6309231226079040e+00 0 0 0
1499 500 1 5.2422000000000002e-01 1.0529315728980837e+01 9.0149635794957472e+00 2.0175599586173125e+00 0 0 0
866 289 1 5.2422000000000002e-01 1.0941993030834935e+01 1.3365695114713255e+01 3.5817890955212297e+00 0 0 0
1588 530 2 -1.0484400000000000e+00 8.4425679394170903e+00 1.1743353761293966e+01 5.2124299128975418e+00 0 0 0
1590 530 1 5.2422000000000002e-01 9.0530931693433736e+00 1.2337026192478275e+01 4.7752914831445450e+00 0 0 0
1589 530 1 5.2422000000000002e-01 8.9795688804857541e+00 1.1274560850665365e+01 5.8512892067397919e+00 0 0 0
864 288 1 5.2422000000000002e-01 9.4775091128945697e+00 1.2380611013629148e+01 1.9430399804696470e+00 0 0 0
913 305 2 -1.0484400000000000e+00 9.7799384988132427e+00 9.9582673437650140e+00 6.9164981115597302e+00 0 0 0
9544 3182 2 -1.0484400000000000e+00 8.5350591816255523e+00 7.1670195768787366e+00 3.8401529362840114e-01 0 0 1
9545 3182 1 5.2422000000000002e-01 7.6125419911413594e+00 6.9625658843743112e+00 5.3710982447506650e-01 0 0 1
9546 3182 1 5.2422000000000002e-01 8.5196262723659579e+00 7.9681997495803714e+00 4.6620383135011224e+01 0 0 0
962 321 1 5.2422000000000002e-01 1.2468110525603555e+01 1.1060236635952002e+01 6.9666326243190007e+00 0 0 0
1496 499 1 5.2422000000000002e-01 1.1700257628695393e+01 7.3758867772535179e+00 5.7230600502260707e+00 0 0 0
863 288 1 5.2422000000000002e-01 9.5492352232262654e+00 1.2297886167804437e+01 4.3306662170391419e-01 0 0 0
862 288 2 -1.0484400000000000e+00 9.1759313012552326e+00 1.1860391173537240e+01 1.1982588523555251e+00 0 0 0
184 62 2 -1.0484400000000000e+00 6.6531954892206357e+00 1.0579291097172936e+01 1.2576001435094777e+00 0 0 0
185 62 1 5.2422000000000002e-01 7.3368807364515458e+00 1.1240122905690118e+01 1.3678426264331622e+00 0 0 0
95 32 1 5.2422000000000002e-01 5.4754293213234710e+00 6.4711396190244175e+00 1.0150212514539276e+00 0 0 0